89
original_frame=6 E_hartree=-121.278399250000 relative_energy=1.052151 kcal/mol
 C         -0.3829675183       -1.3740603585       -0.5696125224
 C          0.9568469030       -1.9205030196       -0.0480460575
 H          1.7826803559       -1.5160862216       -0.6413406471
 H          0.9671731155       -3.0113288328       -0.1146284889
 C         -1.5133970894       -1.9437704017        0.3034047519
 H         -1.3381332911       -1.6850146351        1.3528632751
 H         -1.5502424451       -3.0321856855        0.1965176450
 C         -0.4038974903        0.1649674075       -0.5486436874
 H         -1.2330998226        0.5319082709       -1.1635129719
 H          0.5378105335        0.5528063631       -0.9459763442
 C         -0.6079630555       -1.8348661608       -2.0211949217
 H         -0.3909590293       -2.9049876181       -2.1099671313
 H         -1.6461788195       -1.6391093614       -2.2983064804
 O         -0.5553252067        0.6801394645        0.7686344344
 O         -2.7730617501       -1.4276823287       -0.1014303161
 O          1.1677892101       -1.6012043187        1.3174041147
 O          0.1856200419       -1.1215083305       -2.9579910095
 O         -3.1416254444       -0.5882221728        1.9467705199
 O          2.4530521653        0.1544628096        0.7634807568
 O          1.7585951327       -2.7229638159       -2.9505636030
 O         -2.3209493111        1.9023987125        0.1224605498
 C          1.9357168707       -0.5409133980        1.5984175960
 C          2.0922381676       -0.3759457478        3.0875012078
 H          2.5423150089        0.5958396458        3.2817033134
 H          1.1026410900       -0.4185642660        3.5432737969
 C          2.9652988110       -1.4960866263        3.6691543974
 H          3.0856295851       -1.3162507543        4.7398019503
 H          2.4442492904       -2.4471188430        3.5430044826
 C          4.3434021939       -1.5935367547        3.0134274984
 H          4.8846796094       -2.4222615870        3.4772621990
 H          4.2272955331       -1.8303101349        1.9534399929
 C          5.1756334570       -0.3196567474        3.1495003990
 H          5.1990567960       -0.0120546767        4.1979109288
 H          4.7150050693        0.4806168493        2.5692837953
 C          6.6003484070       -0.5302014193        2.6515131256
 H          6.5949542456       -0.8274928160        1.6052978111
 H          7.1770744277        0.3870600078        2.7441636615
 H          7.0982353911       -1.3086618206        3.2262701161
 C          1.3414238152       -1.6742251775       -3.3651614594
 C          2.0022329390       -0.8153201830       -4.4129133801
 H          1.3682122918        0.0454810976       -4.6165897583
 H          2.0865571648       -1.4169979753       -5.3206438554
 C          3.4080406357       -0.3799260197       -3.9817101544
 H          4.0081060084       -1.2760922845       -3.8120656726
 H          3.8590112250        0.1798873827       -4.8039362129
 C          3.4311558908        0.4762147244       -2.7154948065
 H          4.4721431167        0.7207906642       -2.4911042536
 H          3.0507618540       -0.1010223671       -1.8708007432
 C          2.6381883209        1.7770721325       -2.8254499208
 H          2.9671123465        2.3312949020       -3.7083997837
 H          1.5758714591        1.5548828139       -2.9468810839
 C          2.8269155288        2.6358436180       -1.5798263817
 H          2.1852421816        3.5134930346       -1.6150863381
 H          2.5864395503        2.0613667595       -0.6887353003
 H          3.8595575578        2.9682521674       -1.4981503231
 C         -3.4862699518       -0.7360625956        0.8025147301
 C         -4.7368889701       -0.1492353472        0.2068633186
 H         -5.4600425086       -0.0175056218        1.0136255938
 H         -4.4535075830        0.8469040221       -0.1488908927
 C         -5.3342596405       -0.9605471573       -0.9398950566
 H         -5.5676692774       -1.9683018386       -0.5890063771
 H         -4.6007778730       -1.0500876805       -1.7420957448
 C         -6.6021055385       -0.3038080911       -1.4803743547
 H         -6.3656494560        0.7042409211       -1.8277681654
 H         -7.3349478597       -0.2128553124       -0.6753420378
 C         -7.2145822588       -1.1023056767       -2.6287971702
 H         -6.4837176159       -1.1920997934       -3.4355931786
 H         -7.4493169910       -2.1112610098       -2.2819168393
 C         -8.4803518873       -0.4438899172       -3.1636396136
 H         -8.9002461915       -1.0265945715       -3.9801436854
 H         -9.2292896579       -0.3635702085       -2.3788096312
 H         -8.2631785838        0.5563890179       -3.5317316746
 C         -1.5442263672        1.5585498040        0.9776239715
 C         -1.5265464833        2.1005155595        2.3805444748
 H         -2.5519094660        2.3568822392        2.6457988796
 H         -1.1536910727        1.3391715089        3.0633451297
 C         -0.6370322782        3.3535390124        2.4332542643
 H         -0.8513180028        3.9771156208        1.5622074787
 H         -0.8936838650        3.9306287418        3.3239119105
 C          0.8463812980        2.9975025073        2.4699571139
 H          1.0660918791        2.5132714573        3.4243671860
 H          1.0724259028        2.2843033787        1.6764371884
 C          1.7522947870        4.2154418226        2.3086408777
 H          1.5269878399        4.9470196180        3.0885196479
 H          1.5539105344        4.6867884214        1.3437657600
 C          3.2223369968        3.8204124672        2.3844920711
 H          3.4571946239        3.4088323964        3.3643026672
 H          3.4485512103        3.0685729257        1.6319760223
 H          3.8622964061        4.6829047779        2.2143043362
