89
original_frame=0 E_hartree=-121.280075960000 relative_energy=0.000000 kcal/mol
 C         -0.4481656261       -1.3810083930        0.2786070044
 C         -0.5782616715       -2.6457728643        1.1447276746
 H         -0.4850882361       -3.5397869164        0.5183831421
 H         -1.5467278762       -2.6442592327        1.6490584417
 C         -1.5866312040       -1.3609855177       -0.7529632591
 H         -1.5896027569       -2.2970572368       -1.3195494169
 H         -1.4467007714       -0.5193516029       -1.4399718513
 C         -0.5313295335       -0.1550539738        1.2058452141
 H          0.3902300029       -0.0713997340        1.7893936578
 H         -1.3816524573       -0.2617216880        1.8885140663
 C          0.8937847131       -1.4104753681       -0.4742743590
 H          1.7207038333       -1.4041172028        0.2425333394
 H          0.9545490366       -2.3067580121       -1.0972527968
 O         -0.6874958451        1.0510622285        0.4718203453
 O         -2.8509309578       -1.2359581750       -0.1181571856
 O          0.4138646526       -2.6892352173        2.1589189046
 O          1.0386948377       -0.3006456855       -1.3442117693
 O         -3.2867494777        0.6487954337       -1.2587392770
 O          1.6239570969       -4.1631921839        0.9741221619
 O          2.3202302761        0.7700682818        0.1579520377
 O         -2.5088196482        1.5997294661        1.6620978973
 C          1.4923095142       -3.4627033957        1.9429438069
 C          2.4987901398       -3.2866332823        3.0480945256
 H          1.9672921776       -3.1011570299        3.9808703684
 H          3.0988996274       -4.1926894892        3.1313756374
 C          3.4069055435       -2.0887206811        2.7220834700
 H          2.7878826835       -1.2134897758        2.5123225047
 H          4.0103724461       -1.8600736218        3.6026099993
 C          4.3266056221       -2.3634223897        1.5341890316
 H          5.0553771621       -3.1291942734        1.8106898668
 H          3.7425192756       -2.7595347227        0.7006614186
 C          5.0577763572       -1.1010389314        1.0815906772
 H          5.6555370551       -0.7120331945        1.9090010780
 H          4.3260973477       -0.3356010532        0.8151136054
 C          5.9635574003       -1.3769868214       -0.1118615111
 H          6.4563852293       -0.4636921969       -0.4368929156
 H          6.7275499515       -2.1076807187        0.1463493313
 H          5.3842526565       -1.7729720889       -0.9439206172
 C          1.7679954620        0.7366730809       -0.9106202917
 C          1.8244814060        1.8212368356       -1.9567650188
 H          2.3318593487        2.6869724492       -1.5296637210
 H          0.8006328801        2.0906922837       -2.2186178076
 C          2.5631188156        1.3399931886       -3.2108092049
 H          2.0560842125        0.4580474074       -3.6059538504
 H          2.5123199408        2.1254621661       -3.9680328118
 C          4.0254657606        1.0083144574       -2.9230639396
 H          4.0795393686        0.2115093070       -2.1785492444
 H          4.5184744056        1.8859980458       -2.4986908138
 C          4.7679845408        0.5743500057       -4.1846719337
 H          4.2812718067       -0.3091314078       -4.6040197629
 H          4.7054745063        1.3706695182       -4.9302265815
 C          6.2318722311        0.2599732197       -3.9024867284
 H          6.7428687492       -0.0355962268       -4.8157842723
 H          6.7369225662        1.1325865690       -3.4939672519
 H          6.3169252743       -0.5513296805       -3.1834527394
 C         -3.6024071207       -0.1626505565       -0.4286293992
 C         -4.8473376116       -0.1234178314        0.4133687404
 H         -5.0145659848       -1.1069921140        0.8494397198
 H         -4.6349370961        0.5789894035        1.2247988488
 C         -6.0563906468        0.3659914983       -0.3834917193
 H         -5.8154510353        1.3452803522       -0.8005338036
 H         -6.9036870863        0.4819990046        0.2950279229
 C         -6.4418988704       -0.5732510559       -1.5269394687
 H         -5.5827433968       -0.7024148290       -2.1886178182
 H         -7.2347978030       -0.0973884265       -2.1089812377
 C         -6.9357068642       -1.9409665380       -1.0589412918
 H         -6.1280854457       -2.4762621445       -0.5567983912
 H         -7.7465034356       -1.8049204955       -0.3391647618
 C         -7.4329683036       -2.7837779044       -2.2273551765
 H         -7.7731286316       -3.7572784647       -1.8813943904
 H         -8.2616605225       -2.2894920589       -2.7299932790
 H         -6.6361235343       -2.9359629797       -2.9523939765
 C         -1.7071499398        1.8551882284        0.8001636707
 C         -1.6943578046        3.1065429332       -0.0369088789
 H         -1.7185701429        2.8049923949       -1.0847211301
 H         -2.5957435699        3.6764577113        0.1891248464
 C         -0.4411700126        3.9398679254        0.2508795271
 H          0.4420372362        3.3144809649        0.1120893881
 H         -0.3913847975        4.7636474218       -0.4645107167
 C         -0.4439850644        4.4994179639        1.6716258423
 H         -1.3136959000        5.1468026889        1.8062479745
 H         -0.5338252105        3.6766725373        2.3844497898
 C          0.8278650632        5.2887587519        1.9719120411
 H          0.9225562326        6.1066536804        1.2534452743
 H          1.6934780418        4.6345472963        1.8460604927
 C          0.8216844460        5.8550119124        3.3863377658
 H         -0.0237311630        6.5253581313        3.5254489832
 H          0.7445728283        5.0526847146        4.1166003951
 H          1.7361301398        6.4103751773        3.5813232339
