89
original_frame=9 E_hartree=-121.278216590000 relative_energy=1.166772 kcal/mol
 C         -1.2915142586       -1.0862551047       -1.3779856042
 C         -0.5493899121       -0.8618444517       -0.0520825569
 H         -1.2443055525       -0.9788509928        0.7846980537
 H         -0.1094950424        0.1391931611       -0.0135166655
 C         -1.9322960642       -2.4878933801       -1.3620402082
 H         -1.1544448547       -3.2309568831       -1.1740877592
 H         -2.4217536807       -2.6833326260       -2.3225236992
 C         -2.3934790865       -0.0283763761       -1.5578092509
 H         -3.0729584651       -0.0553066481       -0.6995521941
 H         -2.9559970757       -0.2352305004       -2.4714803451
 C         -0.3109041616       -1.0537561195       -2.5648597243
 H          0.3018011739       -1.9629332072       -2.5646051582
 H         -0.8722547822       -0.9927531741       -3.5021784712
 O         -1.8871133188        1.2904353084       -1.6890849941
 O         -2.8812430000       -2.6529727264       -0.3197491391
 O          0.4876263584       -1.8256257785        0.0863003641
 O          0.5589884614        0.0681648839       -2.5186704319
 O         -4.5773924888       -2.1939066920       -1.7141515991
 O          1.9706826552       -0.2324405651        0.6301258750
 O          2.3585657137       -1.2730252630       -2.5455685100
 O         -2.2435486281        1.6812531789        0.4896753035
 C          1.7159768288       -1.3863718595        0.3951939700
 C          2.7159839438       -2.5090532659        0.3454063521
 H          2.1930498114       -3.4595993758        0.4517825563
 H          3.1332981747       -2.4637773018       -0.6652362884
 C          3.8358656852       -2.3623798604        1.3761828304
 H          4.7205769859       -2.8883886600        1.0126861339
 H          4.0913504105       -1.3065359167        1.4682335007
 C          3.4651282023       -2.9375373739        2.7438629395
 H          3.2118322453       -3.9940857657        2.6202138219
 H          4.3439882371       -2.8849285524        3.3912014071
 C          2.3021899865       -2.2298333619        3.4392835323
 H          2.0384901069       -2.8019544147        4.3327662397
 H          1.4281681383       -2.2281819151        2.7844755024
 C          2.6324888282       -0.7989554707        3.8451671935
 H          3.5345893867       -0.7722970079        4.4529719112
 H          2.7849857180       -0.1759448938        2.9689245501
 H          1.8157256583       -0.3717011347        4.4224316690
 C          1.8794720001       -0.1676995609       -2.5342325145
 C          2.6664580393        1.1151225711       -2.5646939666
 H          2.0055399726        1.9452395358       -2.3211800573
 H          3.0280905939        1.2460012252       -3.5890239995
 C          3.8566108324        1.0421680636       -1.6059330132
 H          3.4750094618        0.9382116282       -0.5911238353
 H          4.4363582244        0.1476164887       -1.8424244570
 C          4.7527053802        2.2725852312       -1.7066853610
 H          4.1878969092        3.1619717939       -1.4184863416
 H          5.0649721364        2.4009351962       -2.7466275380
 C          6.0015428631        2.1577172480       -0.8308378239
 H          6.5074941101        1.2162705786       -1.0562726236
 H          6.6867214207        2.9696699405       -1.0870165557
 C          5.6981382959        2.2238702175        0.6613103386
 H          5.2417804080        3.1782281270        0.9153532550
 H          5.0199406309        1.4290739129        0.9582483943
 H          6.6153489495        2.1225420703        1.2371907923
 C         -4.1814933754       -2.5109563793       -0.6231878859
 C         -5.0576584691       -2.8126768227        0.5653860948
 H         -5.8366573833       -3.4981072874        0.2272102410
 H         -4.4599140746       -3.2902933437        1.3408721428
 C         -5.7135325745       -1.5338583031        1.1055950854
 H         -6.5422573648       -1.8161741558        1.7583762478
 H         -6.1265244595       -0.9690657242        0.2671382626
 C         -4.7364302224       -0.6637156696        1.8912374760
 H         -3.8916461632       -0.3809723738        1.2611014510
 H         -4.3396403526       -1.2359289411        2.7333004926
 C         -5.3979508126        0.6088536565        2.4149503973
 H         -5.8162058517        1.1665317774        1.5739944480
 H         -6.2233741519        0.3433771435        3.0804688494
 C         -4.3975918959        1.4886951038        3.1540208158
 H         -4.8740745493        2.4025950087        3.5011626355
 H         -3.9920136165        0.9637167878        4.0163390632
 H         -3.5761237228        1.7520515583        2.4929342226
 C         -1.8876122091        2.0627453162       -0.5955513505
 C         -1.4339035496        3.4661718693       -0.9104221735
 H         -0.9786187862        3.4811366001       -1.9004159350
 H         -2.3339567676        4.0862746494       -0.9304853944
 C         -0.4744458274        3.9843072753        0.1635428983
 H         -0.4370524290        5.0748069324        0.1256820533
 H         -0.8671217443        3.6917973115        1.1380150403
 C          0.9333949698        3.4241690037       -0.0256348748
 H          0.8850900171        2.3393233583       -0.1377021325
 H          1.3501165224        3.8399259788       -0.9475808698
 C          1.8646791120        3.7482206681        1.1424584887
 H          1.7569448876        4.8011795215        1.4150330641
 H          2.8956681108        3.5914577974        0.8206620034
 C          1.5972372208        2.8627934611        2.3529963762
 H          2.3067911705        3.0793103339        3.1485198585
 H          0.5934194946        3.0167631643        2.7405345946
 H          1.7001002495        1.8178445274        2.0723080429
