89
original_frame=1 E_hartree=-121.279375870000 relative_energy=0.439313 kcal/mol
 C         -0.6598446062        0.0051166320       -0.0142841796
 C          0.7596761685       -0.5675326956        0.0925296469
 H          1.4503556400        0.1819602336        0.4923772023
 H          1.1096527727       -0.8678360669       -0.9003502225
 C         -1.5653571848       -1.0496110445       -0.6708630272
 H         -1.7106536669       -1.8896064521        0.0137588289
 H         -1.1038580663       -1.4144986877       -1.5949580046
 C         -1.2245228284        0.3455992709        1.3745513936
 H         -1.2791477500       -0.5648224905        1.9808791783
 H         -2.2217790718        0.7789061379        1.2655022042
 C         -0.6246268145        1.2833136972       -0.8648036831
 H         -1.6201091185        1.7394382897       -0.9004822891
 H          0.0783726630        2.0012012975       -0.4322602404
 O         -0.4211059649        1.2993258076        2.0573155917
 O         -2.8374749999       -0.5037873253       -0.9851728070
 O          0.7719690075       -1.7017634339        0.9486432789
 O         -0.2031156524        0.9931835796       -2.1881861070
 O         -2.5832844198       -1.0836527529       -3.1383249737
 O          2.7199577564       -1.0333824881        1.8343859597
 O         -2.0038014833        2.0314561937       -3.0292008727
 O          0.1849925360       -0.2385841628        3.5762433008
 C          1.7962411994       -1.8026412301        1.8173076490
 C          1.6168907296       -3.0042606519        2.7057548352
 H          0.6910136611       -2.8540456785        3.2642452039
 H          1.4793671641       -3.8733073638        2.0587187225
 C          2.7890144461       -3.2041563294        3.6643007114
 H          2.7543195975       -4.2230584674        4.0520217606
 H          3.7235602294       -3.0774489218        3.1141505044
 C          2.7456837098       -2.2049460688        4.8191199301
 H          2.6478424341       -1.2024035405        4.4026026646
 H          1.8592003897       -2.3951590534        5.4279866739
 C          3.9910300051       -2.2531514157        5.7030592480
 H          3.9392909059       -1.4302900186        6.4199122860
 H          4.8768296802       -2.0956501233        5.0839778259
 C          4.1342283299       -3.5631303553        6.4698547465
 H          3.2390070256       -3.7599693048        7.0560529761
 H          4.2933579208       -4.3977312648        5.7920892787
 H          4.9830993876       -3.5131892312        7.1483642809
 C         -0.9931762027        1.3977040763       -3.1958031438
 C         -0.4808909617        0.9353225094       -4.5330649654
 H         -0.9298211654        1.5695085825       -5.2989837471
 H         -0.8729459581       -0.0776594947       -4.6633238579
 C          1.0426006962        0.9308513848       -4.6446152912
 H          1.4617383890        0.3050418376       -3.8557836696
 H          1.3219536257        0.4938021169       -5.6054648752
 C          1.6257716893        2.3386064127       -4.5407406837
 H          1.3209378012        2.7880709289       -3.5930889253
 H          1.2214051583        2.9586501678       -5.3443799331
 C          3.1501792248        2.3330217074       -4.6245942002
 H          3.5519552675        1.7155891634       -3.8182412524
 H          3.4575328844        1.8829061300       -5.5713372350
 C          3.7275632561        3.7391175822       -4.5203837579
 H          4.8131122260        3.7130372800       -4.5793314769
 H          3.3552408551        4.3653606335       -5.3281908667
 H          3.4459130140        4.1964252162       -3.5746449537
 C         -3.2344945512       -0.5627074033       -2.2681033947
 C         -4.5406709274        0.1488808817       -2.4896952811
 H         -4.2767252326        1.2081384421       -2.5647121976
 H         -4.9333424997       -0.1646760764       -3.4580800436
 C         -5.5812413330       -0.0493490351       -1.3867711087
 H         -6.3450204832        0.7233417639       -1.4967729027
 H         -5.1059523909        0.0832087912       -0.4141712023
 C         -6.2632847932       -1.4160733319       -1.4447390012
 H         -6.7149124448       -1.5519637820       -2.4303962009
 H         -7.0710323665       -1.4299489239       -0.7084793298
 C         -5.3210604584       -2.5826814813       -1.1596207465
 H         -4.5518292755       -2.6310419658       -1.9324338295
 H         -4.8234330143       -2.4173395472       -0.2011072697
 C         -6.0696621566       -3.9097775330       -1.1215504785
 H         -6.8274833917       -3.8993667270       -0.3408053160
 H         -6.5622394102       -4.0961643457       -2.0733458946
 H         -5.3845480149       -4.7308679082       -0.9242236498
 C          0.2541888182        0.8817286938        3.1432537314
 C          1.1038487790        1.9800124416        3.7270131781
 H          0.6005016277        2.9389778872        3.6047992047
 H          1.2377745103        1.7627553775        4.7869576670
 C          2.4743051416        2.0115937143        3.0271531837
 H          3.1890881166        2.5219926816        3.6745034207
 H          2.8266951536        0.9876830524        2.8883655577
 C          2.4138227911        2.7172488601        1.6740325219
 H          1.5189385458        2.3904507454        1.1413763839
 H          2.3226866076        3.7959815528        1.8253755694
 C          3.6414820010        2.4190549278        0.8157035108
 H          3.7737117065        1.3372577596        0.7477970477
 H          4.5298273099        2.8294441668        1.3004354799
 C          3.5079134207        3.0048696910       -0.5850584917
 H          3.3605247946        4.0822783535       -0.5370838569
 H          4.4037888811        2.8078035697       -1.1688407831
 H          2.6587333021        2.5651156402       -1.1053166373
