89
original_frame=3 E_hartree=-121.278777580000 relative_energy=0.814746 kcal/mol
 C         -0.3988040743       -1.1993510623        1.3069008870
 C         -0.3388883752       -1.7973645481        2.7256905301
 H         -0.9134855514       -2.7291724219        2.7676705101
 H         -0.7424515719       -1.0720775042        3.4356937466
 C         -1.8829217156       -1.0394658836        0.9418441748
 H         -2.4072767022       -0.4774247901        1.7239685167
 H         -2.3439514453       -2.0281886207        0.8421069254
 C          0.3168136964        0.1621375133        1.3034966986
 H          0.4441075556        0.5252867268        0.2798266656
 H          1.2950101020        0.0590756714        1.7809199239
 C          0.3048915734       -2.1488831457        0.3183065941
 H          1.3259134747       -2.3440445496        0.6605902993
 H         -0.2472095093       -3.0890922221        0.2491761178
 O         -0.4230630681        1.1362150772        2.0292478953
 O         -2.0368900571       -0.3624380329       -0.2919237672
 O          0.9926308909       -2.0601926783        3.1356984554
 O          0.3765434048       -1.6142945844       -0.9940303833
 O         -3.5338418028        1.0462021721        0.6020396065
 O          0.7409111739       -4.2492583912        2.7082149621
 O          2.5279482979       -1.0571116149       -0.6778106581
 O         -0.6275747181        2.4019152526        0.1868385131
 C          1.4297967675       -3.3308003143        3.0659538920
 C          2.8783823966       -3.4140167875        3.4656132505
 H          3.0665755416       -2.6815552492        4.2501779706
 H          3.0849196942       -4.4188247073        3.8344048145
 C          3.7737004966       -3.1113646703        2.2525216574
 H          3.4796234986       -2.1560318591        1.8124098656
 H          4.8037941042       -3.0101901053        2.5998903518
 C          3.7049119881       -4.2059198586        1.1900791364
 H          4.1195776883       -5.1320829245        1.5953415812
 H          2.6625148550       -4.4037080942        0.9315048356
 C          4.4698783852       -3.8103427357       -0.0711643844
 H          5.5208960160       -3.6497139483        0.1796354648
 H          4.0717990788       -2.8666193517       -0.4486886680
 C          4.3634394462       -4.8781815062       -1.1525565195
 H          4.9148657316       -4.5793688063       -2.0409199827
 H          4.7682822540       -5.8242164390       -0.7986228641
 H          3.3234264311       -5.0352316273       -1.4309082161
 C          1.5418739114       -1.0651602831       -1.3696282203
 C          1.4335233898       -0.4268491934       -2.7271141270
 H          0.6823392187       -0.9474401333       -3.3205795883
 H          2.4031717316       -0.4822748339       -3.2228040158
 C          1.0320763235        1.0435894328       -2.5343745658
 H          0.0567732723        1.0896594307       -2.0492084621
 H          1.7587688486        1.5222549528       -1.8765058793
 C          0.9735721837        1.7925031529       -3.8640885249
 H          0.4561206524        1.1750148120       -4.6026277807
 H          1.9896056546        1.9606160749       -4.2282003063
 C          0.2428784632        3.1319069686       -3.7545421134
 H          0.2953776937        3.6324076284       -4.7247506211
 H         -0.8112599563        2.9480867149       -3.5363115967
 C          0.8172521264        4.0488652353       -2.6808035822
 H          0.3599086625        5.0337710823       -2.7469390213
 H          0.6184664056        3.6495111559       -1.6900976972
 H          1.8919518421        4.1615354426       -2.8077127382
 C         -2.8954829443        0.6623508297       -0.3463672586
 C         -2.9430555087        1.2848684908       -1.7180444418
 H         -3.9094419291        1.7797856681       -1.8294705792
 H         -2.1688195712        2.0580612390       -1.7188988753
 C         -2.6947952194        0.2809683874       -2.8414998473
 H         -1.7625233700       -0.2436098442       -2.6402874156
 H         -2.5854622649        0.8184587312       -3.7859142529
 C         -3.8319698137       -0.7339412119       -2.9632952746
 H         -4.6995891525       -0.2474300302       -3.4151771987
 H         -4.1275943813       -1.0721948718       -1.9678955645
 C         -3.4297531942       -1.9508777970       -3.7988757740
 H         -4.3297251787       -2.4742255920       -4.1296766127
 H         -2.8989863598       -1.6133020084       -4.6921533209
 C         -2.5557004884       -2.9253562460       -3.0160962443
 H         -1.6764632064       -2.4311034711       -2.6106795110
 H         -3.1179436338       -3.3490355485       -2.1863086484
 H         -2.2275531976       -3.7413089247       -3.6562645664
 C         -0.8650042546        2.2071679496        1.3518971708
 C         -1.7021483112        3.0966875816        2.2293028528
 H         -2.7351666381        2.7632095408        2.0908355046
 H         -1.4244459535        2.9336881872        3.2709769726
 C         -1.5714850092        4.5648621317        1.8280165506
 H         -1.7608817244        4.6431075671        0.7575391588
 H         -2.3268699593        5.1498471882        2.3556705302
 C         -0.1829326345        5.1142269281        2.1495916863
 H          0.0110115729        4.9798433991        3.2172395588
 H          0.5655757627        4.5390681626        1.6002827656
 C         -0.0286646862        6.5954018368        1.8035121789
 H          0.9212251042        6.9499165074        2.2108396632
 H         -0.8271342776        7.1637502237        2.2863480548
 C         -0.0488904634        6.8619460404        0.3028872216
 H          0.1508561611        7.9124995378        0.1035217814
 H          0.7107291959        6.2657360385       -0.1975630751
 H         -1.0162508369        6.6141762052       -0.1253744903
