89
original_frame=5 E_hartree=-121.278638960000 relative_energy=0.901731 kcal/mol
 C         -1.2163779395       -1.0908967362       -1.4097665942
 C         -0.5053830991       -0.8578028662       -0.0692277056
 H         -1.2034303766       -1.0316629527        0.7552292022
 H         -0.1247096452        0.1661553244       -0.0061423289
 C         -1.8177228742       -2.5090517321       -1.4234613984
 H         -1.0226545581       -3.2328459175       -1.2319505725
 H         -2.2853628174       -2.7052243596       -2.3945880697
 C         -2.3377603613       -0.0536652319       -1.5948966492
 H         -3.0523209059       -0.1313078255       -0.7689330444
 H         -2.8548857274       -0.2326972746       -2.5403995729
 C         -0.2132754746       -1.0145469234       -2.5741601711
 H          0.4866282826       -1.8565880885       -2.5184894791
 H         -0.7530976805       -1.0511738516       -3.5255916048
 O         -1.8497343883        1.2776591296       -1.6452022300
 O         -2.7802300241       -2.7130318718       -0.4007891158
 O          0.5874465919       -1.7574327722        0.0655947089
 O          0.5321875112        0.1929680945       -2.5577516643
 O         -4.4600329867       -2.2841109155       -1.8243084853
 O          1.9427399829       -0.0816015590        0.6889412557
 O          2.4681392620       -0.9363064167       -2.4852750836
 O         -2.3579755272        1.5883465834        0.5169019580
 C          1.7745667637       -1.2439616802        0.4208725668
 C          2.8514832885       -2.2930923410        0.3918210983
 H          2.3921852081       -3.2813541186        0.4125539231
 H          3.3429468836       -2.1657770091       -0.5769807708
 C          3.8721577613       -2.1202098552        1.5179816853
 H          4.8196995026       -2.5644497432        1.2077213577
 H          4.0405624956       -1.0547131014        1.6758371477
 C          3.4361427534       -2.7835563898        2.8250079138
 H          3.2852332613       -3.8508843696        2.6409910228
 H          4.2496855142       -2.6877388850        3.5483860900
 C          2.1617355829       -2.2072348461        3.4425627698
 H          1.8870898329       -2.8302916688        4.2980042338
 H          1.3437578389       -2.2674362709        2.7215897294
 C          2.3188526816       -0.7653283100        3.9099492357
 H          3.1793786722       -0.6679880783        4.5686827414
 H          2.4504148514       -0.0967898047        3.0642689219
 H          1.4320886577       -0.4470803123        4.4535251490
 C          1.8710087698        0.1088167818       -2.5315403152
 C          2.4843087454        1.4828165411       -2.6026644225
 H          1.6743169986        2.2105924598       -2.5496070357
 H          2.9768883165        1.5731978163       -3.5745992993
 C          3.5086869231        1.7303343906       -1.4877585677
 H          3.7179091225        2.8008140326       -1.4566322729
 H          3.0704759642        1.4406705807       -0.5327477706
 C          4.8074225458        0.9564537310       -1.7009056565
 H          5.3075836598        1.3204138487       -2.6024555739
 H          4.5625303896       -0.0941804344       -1.8570812411
 C          5.7606049613        1.0689532503       -0.5113885867
 H          5.2252742953        0.7951621356        0.3994802888
 H          6.5745690297        0.3528791199       -0.6467875750
 C          6.3562816192        2.4626214429       -0.3481950132
 H          6.8667894088        2.7685456912       -1.2592305059
 H          5.5841226462        3.1933593871       -0.1234815687
 H          7.0762679367        2.4726315903        0.4670234306
 C         -4.0780995218       -2.6023791463       -0.7288594768
 C         -4.9696868359       -2.9439897944        0.4371931549
 H         -5.6699807804       -3.7073211400        0.0929015767
 H         -4.3635239706       -3.3448240192        1.2487584752
 C         -5.7577132443       -1.7135132481        0.9070864550
 H         -6.5958530714       -2.0470264619        1.5224983345
 H         -6.1672587349       -1.2049167630        0.0318154370
 C         -4.8979651424       -0.7479877522        1.7182169077
 H         -4.0328116780       -0.4299848861        1.1341521054
 H         -4.5218758600       -1.2591817922        2.6076974447
 C         -5.6782738838        0.4933394278        2.1440033121
 H         -6.0635452089        0.9958148693        1.2538824292
 H         -6.5352024477        0.1948455703        2.7533723818
 C         -4.7967903068        1.4589855746        2.9260493294
 H         -5.3505987886        2.3572740972        3.1891123486
 H         -4.4414836414        0.9934493286        3.8429109447
 H         -3.9344822568        1.7414205832        2.3277784837
 C         -1.9183450527        2.0057419123       -0.5231927345
 C         -1.4195630635        3.4106808496       -0.7545335049
 H         -0.7825535290        3.4176603338       -1.6388197995
 H         -2.3012358372        4.0230758069       -0.9625312651
 C         -0.6912013775        3.9537880552        0.4759986733
 H         -0.6178265993        5.0407413597        0.4036427008
 H         -1.2842832310        3.7123032522        1.3602165682
 C          0.7073370909        3.3594818858        0.6220065182
 H          0.6483820064        2.2699852365        0.6066345419
 H          1.3243674465        3.6704415859       -0.2245665558
 C          1.3800891985        3.7901781278        1.9229186909
 H          0.7709154334        3.4550524868        2.7649139719
 H          1.4330889368        4.8812033228        1.9646353761
 C          2.7796181248        3.2015199822        2.0468259739
 H          3.2158241509        3.4422019049        3.0135147383
 H          2.7383727217        2.1204580489        1.9428472804
 H          3.4301291141        3.5949309323        1.2689397430
