89
original_frame=8 E_hartree=-121.278292220000 relative_energy=1.119314 kcal/mol
 C         -1.2700740487        1.8481402975       -1.4765836278
 C         -0.1965814802        0.9521487234       -0.8393101239
 H          0.6525542088        1.5593182100       -0.5042710956
 H          0.1545029340        0.2189003768       -1.5724664942
 C         -2.3094210675        0.9994855904       -2.2304568165
 H         -1.8087394850        0.4680386889       -3.0471728741
 H         -3.0968103961        1.6423913962       -2.6323825869
 C         -1.9770052463        2.6834582226       -0.3989032757
 H         -2.4703893501        2.0169527201        0.3163280449
 H         -2.7187383859        3.3398876870       -0.8640131872
 C         -0.5790210562        2.7828337360       -2.4847327614
 H         -1.3246324454        3.3575943037       -3.0402627720
 H          0.0968237950        3.4630332558       -1.9560804481
 O         -1.0539662887        3.5137202578        0.2914237882
 O         -2.9568580047        0.0616034787       -1.3870443387
 O         -0.7165917151        0.2396037060        0.2746054857
 O          0.1621044845        2.0310604729       -3.4350572993
 O         -1.5518936382       -1.5657425946       -2.0449540215
 O          1.2117893336        0.5339400209        1.3799965511
 O          2.1098460454        2.7095057189       -2.5424045919
 O         -1.4858714477        2.4975228661        2.2470053123
 C          0.0917036345        0.0980921913        1.3368133251
 C         -0.6007438824       -0.6414854567        2.4501839747
 H         -0.9872589623        0.1309292919        3.1202266361
 H         -1.4487744229       -1.1910737639        2.0429745986
 C          0.3562728095       -1.5648267057        3.2052393198
 H          1.3079656279       -1.0466284358        3.3329891841
 H         -0.0543867558       -1.7696550226        4.1960181799
 C          0.5889618423       -2.8945245725        2.4883280336
 H          1.2260639103       -3.5191276408        3.1198765491
 H         -0.3670730454       -3.4128968277        2.3747734252
 C          1.2523629832       -2.7451641940        1.1207192928
 H          2.1673270425       -2.1588997164        1.2286011902
 H          0.5925668506       -2.2000750168        0.4422597374
 C          1.5813620613       -4.0998300742        0.5039820321
 H          2.0378992688       -3.9727155847       -0.4745789794
 H          2.2728613612       -4.6516177679        1.1376315197
 H          0.6789196346       -4.6959046038        0.3828840610
 C          1.5072192555        2.0367258517       -3.3325628315
 C          2.1158999231        1.1041905978       -4.3491683907
 H          2.4688996329        1.7158768865       -5.1832875376
 H          1.3376510981        0.4352078696       -4.7171356482
 C          3.2897754483        0.3168061481       -3.7606739255
 H          3.7379510885       -0.2760391209       -4.5587672004
 H          4.0379047919        1.0208178053       -3.3929596266
 C          2.8525427139       -0.5941478800       -2.6141774186
 H          2.0095640853       -1.2118046430       -2.9351417558
 H          2.5177687721        0.0303157303       -1.7839832780
 C          3.9742606518       -1.5025956487       -2.1086402358
 H          4.8648368738       -0.9008799706       -1.9164560630
 H          3.6605741584       -1.9389867219       -1.1581463518
 C          4.3169979539       -2.6302999688       -3.0754092064
 H          5.0690526922       -3.2845723388       -2.6401494364
 H          3.4321698569       -3.2243866203       -3.2947007568
 H          4.7103741867       -2.2422413471       -4.0115527703
 C         -2.4623409398       -1.1884281192       -1.3577872202
 C         -3.2391305666       -2.0356319274       -0.3817332651
 H         -3.3287376628       -1.4756670001        0.5510103982
 H         -4.2489112871       -2.1616008921       -0.7809128356
 C         -2.5775860080       -3.3922799128       -0.1590092422
 H         -1.5561364714       -3.2349731193        0.1890357802
 H         -2.5201153551       -3.9120602137       -1.1153346878
 C         -3.3437977367       -4.2345599360        0.8574039113
 H         -4.3439051618       -4.4481424177        0.4726726638
 H         -3.4622521059       -3.6570048197        1.7783570049
 C         -2.6442351468       -5.5518788647        1.1950436117
 H         -1.6328121322       -5.3435590689        1.5515306881
 H         -3.1872163277       -6.0332310704        2.0120011397
 C         -2.5734385403       -6.5144491395        0.0155904920
 H         -3.5683028137       -6.7031745076       -0.3820935650
 H         -1.9536251903       -6.1117783717       -0.7809532955
 H         -2.1451404582       -7.4634703915        0.3300905516
 C         -0.8808600445        3.3205216770        1.6110109969
 C          0.1538268788        4.2741531081        2.1479735571
 H          0.4486618273        4.9452934785        1.3415097506
 H         -0.2975006436        4.8536081847        2.9561723321
 C          1.3760581487        3.5155905549        2.6886290773
 H          1.6887431711        2.7647278072        1.9615028609
 H          2.1971282672        4.2251014121        2.8097207610
 C          1.0918603008        2.8282705747        4.0210432077
 H          0.9121681384        3.5822124406        4.7922793908
 H          0.1870723935        2.2277290059        3.9245394653
 C          2.2476734008        1.9251449905        4.4420183833
 H          3.1553561475        2.5233155038        4.5524857953
 H          2.4239687836        1.1958779480        3.6498155880
 C          1.9529260198        1.2025385380        5.7504538211
 H          2.7810862603        0.5535244538        6.0260542717
 H          1.7952679981        1.9174714060        6.5556578844
 H          1.0565630611        0.5938670294        5.6543259238
