89
original_frame=2 E_hartree=-121.279188970000 relative_energy=0.556595 kcal/mol
 C         -1.3313144654       -1.0350437417       -1.4108513420
 C         -0.6307720219       -0.8711878347       -0.0536841370
 H         -1.3423792896       -1.0727658660        0.7522385369
 H         -0.2371574873        0.1433274719        0.0570698151
 C         -1.9528587489       -2.4423308150       -1.4915956114
 H         -1.1694364339       -3.1852266525       -1.3264925064
 H         -2.4148956277       -2.5881254073       -2.4742415810
 C         -2.4375194924        0.0247433187       -1.5560691531
 H         -3.1437971670       -0.0602703874       -0.7237147118
 H         -2.9695425268       -0.1229600356       -2.4988267567
 C         -0.3222389070       -0.9201997397       -2.5686417868
 H          0.2913965233       -1.8275495226       -2.6191793720
 H         -0.8606044593       -0.7926865066       -3.5127348359
 O         -1.9281407049        1.3489865621       -1.5822229837
 O         -2.9251747167       -2.6805747102       -0.4856258671
 O          0.4463408849       -1.7914594706        0.0711120732
 O          0.5439460572        0.1942811069       -2.4172549212
 O         -4.5913038302       -2.1477284829       -1.8899528367
 O          1.8804538812       -0.1218004455        0.5133770181
 O          2.3417360651       -1.1450454255       -2.5206960937
 O         -2.3869332159        1.6063966493        0.5973313419
 C          1.6612100210       -1.2945690165        0.3439631796
 C          2.7037464690       -2.3785658758        0.3652295045
 H          2.2156400472       -3.3473962885        0.4693877935
 H          3.1765861653       -2.3375530113       -0.6205818295
 C          3.7545111982       -2.1550308559        1.4551675360
 H          4.6806870951       -2.6524581539        1.1609847468
 H          3.9592143473       -1.0865089345        1.5312730441
 C          3.3273915924       -2.7041428990        2.8170641303
 H          3.1419184070       -3.7771496899        2.7173238181
 H          4.1589923074       -2.5788153612        3.5149657940
 C          2.0837080003       -2.0449429342        3.4141777665
 H          1.8109447460       -2.5938552051        4.3195525398
 H          1.2485108678       -2.1353731813        2.7165984723
 C          2.2904453440       -0.5771686660        3.7682922213
 H          3.1682909001       -0.4557493915        4.3996326571
 H          2.4199253286        0.0232907266        2.8728383744
 H          1.4253324216       -0.1949282573        4.3055672047
 C          1.8648733293       -0.0438466165       -2.4152360409
 C          2.6479626610        1.2360422043       -2.3016941391
 H          2.0866809320        1.9348662002       -1.6829092669
 H          2.7230736632        1.6578605899       -3.3085615794
 C          4.0394573061        0.9819472203       -1.7269492122
 H          3.9199965676        0.6218483537       -0.7060410028
 H          4.5245208495        0.1963514627       -2.3095184091
 C          4.9006099959        2.2405599405       -1.7404540687
 H          4.4326170194        3.0046786734       -1.1166387662
 H          4.9485676366        2.6293262455       -2.7613211849
 C          6.3256084366        1.9898116990       -1.2460539749
 H          6.7836922095        1.2071498459       -1.8550329223
 H          6.9087338325        2.9028822736       -1.3896631360
 C          6.3906119462        1.5894191881        0.2233079145
 H          5.8907873927        2.3298932971        0.8433349582
 H          5.9140487104        0.6268132533        0.3857885063
 H          7.4264291325        1.5128752207        0.5465792536
 C         -4.2191720096       -2.5312895266       -0.8121234645
 C         -5.1205215430       -2.9190233882        0.3317592173
 H         -5.8921152717       -3.5762788365       -0.0727395729
 H         -4.5389932414       -3.4536295721        1.0820268920
 C         -5.7883736683       -1.6839928077        0.9531147103
 H         -6.6245364887       -2.0159343245        1.5722859483
 H         -6.1925872816       -1.0613045373        0.1522763556
 C         -4.8262999514       -0.8695206118        1.8133681518
 H         -3.9830270513       -0.5238144824        1.2134427485
 H         -4.4256646328       -1.5044471136        2.6073433239
 C         -5.5075872958        0.3461848848        2.4373100479
 H         -5.9308598121        0.9654803349        1.6434224830
 H         -6.3311654055        0.0152171224        3.0752305554
 C         -4.5221294252        1.1760387460        3.2504328555
 H         -5.0131809942        2.0501719432        3.6717114382
 H         -4.1096711550        0.5868203611        4.0668155164
 H         -3.7043910510        1.5066301340        2.6155755106
 C         -1.9677845900        2.0484256914       -0.4413656874
 C         -1.4662520688        3.4569605514       -0.6418876299
 H         -0.8885124825        3.5001356578       -1.5649093790
 H         -2.3513240458        4.0882961681       -0.7575344544
 C         -0.6487468863        3.9271310249        0.5633202137
 H         -0.5922620025        5.0173419801        0.5639162448
 H         -1.1668294200        3.6145913684        1.4721491912
 C          0.7625697513        3.3456293968        0.5512927776
 H          0.7144440856        2.2630033121        0.4197448777
 H          1.3147202224        3.7633434082       -0.2953648004
 C          1.5231173500        3.6391215941        1.8416617317
 H          0.9974490240        3.1721408384        2.6768576644
 H          1.5427797012        4.7171893067        2.0209486781
 C          2.9464175743        3.1002476027        1.7740781152
 H          3.4478702153        3.2098775388        2.7329346039
 H          2.9309546568        2.0472066054        1.5049648535
 H          3.5206932180        3.6390069733        1.0229255834
