89
original_frame=7 E_hartree=-121.278376130000 relative_energy=1.066659 kcal/mol
 C          0.2418201637       -0.3975572005        0.3201290856
 C         -0.1368979547       -0.9300831718        1.7132651940
 H         -0.8609687268       -1.7463547795        1.6243853100
 H         -0.5569657075       -0.1193999492        2.3126582518
 C         -1.0151347780        0.1052749662       -0.4096872765
 H         -0.7559645097        0.3701914735       -1.4371090126
 H         -1.4287708266        0.9739193827        0.1098809706
 C          1.2396803906        0.7639560076        0.4820668103
 H          1.5839686367        1.1098184856       -0.4967549991
 H          2.0891356529        0.4312138230        1.0824353776
 C          0.8869174231       -1.5242462304       -0.5062271850
 H          1.7720809100       -1.9133428172        0.0049261929
 H          0.1600776613       -2.3252699737       -0.6585536316
 O          0.6606661955        1.8646116339        1.1671742065
 O         -2.0287739497       -0.8872799326       -0.4920702347
 O          1.0018527713       -1.4102060675        2.4116702671
 O          1.2714714132       -1.0686148989       -1.7949906528
 O         -3.0904281782        0.0181247835        1.2636257589
 O          0.4301960816       -3.5368100883        1.9757693072
 O          3.4167937985       -0.9167010141       -1.1529103413
 O          0.3865107106        2.9724523674       -0.7654670192
 C          1.1904000395       -2.7385071733        2.4585158632
 C          2.4817740277       -3.0646752801        3.1607867553
 H          2.6426851905       -2.3323548429        3.9516828936
 H          2.4089241225       -4.0652874788        3.5871852526
 C          3.6498641565       -3.0102684681        2.1619217695
 H          3.6383832462       -2.0500342989        1.6412449797
 H          4.5811649258       -3.0716289042        2.7262791520
 C          3.5900358799       -4.1466790940        1.1421131460
 H          3.7855448274       -5.0956576653        1.6473767962
 H          2.5817548707       -4.2025450789        0.7260318082
 C          4.5869725151       -3.9643334811       -0.0029642257
 H          4.4277289929       -2.9892906132       -0.4675085552
 H          4.3911446649       -4.7297466815       -0.7577109853
 C          6.0387705727       -4.0769296370        0.4478150380
 H          6.7036110534       -4.0289616378       -0.4114199111
 H          6.3013611156       -3.2659711741        1.1217008428
 H          6.2083265512       -5.0223900304        0.9596282581
 C          2.5645465081       -0.7716936709       -1.9915326205
 C          2.7761220379       -0.2083835503       -3.3706973488
 H          2.0658916614       -0.6760509663       -4.0519339358
 H          3.7947255948       -0.4244605744       -3.6900316166
 C          2.5407842804        1.3124420545       -3.3494008124
 H          2.5261113894        1.6730565527       -4.3798599066
 H          1.5585911227        1.5138580245       -2.9166131123
 C          3.6084183202        2.0759347139       -2.5644278028
 H          3.8133200933        1.5591524500       -1.6247324584
 H          3.2165305950        3.0656219037       -2.3199635646
 C          4.9164721111        2.2379596346       -3.3361401883
 H          5.3280003287        1.2557605754       -3.5755316551
 H          4.7192424208        2.7566084881       -4.2775351901
 C          5.9446901647        3.0228059504       -2.5310899768
 H          6.1696520203        2.5072831679       -1.6001755205
 H          6.8686208841        3.1355940469       -3.0936761360
 H          5.5653549664        4.0137322766       -2.2907007234
 C         -3.0261911640       -0.8195885321        0.4012020160
 C         -4.0336589972       -1.9191365929        0.1784461451
 H         -3.9119957669       -2.3111139935       -0.8311706827
 H         -3.8001824935       -2.7170638872        0.8881764510
 C         -5.4557954346       -1.4109862413        0.4187008166
 H         -5.4877652317       -0.9222831510        1.3941829558
 H         -6.1449361900       -2.2569951495        0.4376942859
 C         -5.8888809428       -0.4182441219       -0.6577552594
 H         -5.9043085826       -0.9173088651       -1.6298866191
 H         -5.1594132839        0.3924745644       -0.7118836560
 C         -7.2665393360        0.1720019944       -0.3682529918
 H         -8.0041308146       -0.6328248815       -0.3268385844
 H         -7.2483438593        0.6562164021        0.6104094848
 C         -7.6800342834        1.1873501567       -1.4262162130
 H         -7.7150975773        0.7230175166       -2.4094364046
 H         -8.6637269857        1.5939600805       -1.2037298676
 H         -6.9687461401        2.0095559732       -1.4612686198
 C          0.2538201550        2.9089773744        0.4298060548
 C         -0.4050510132        3.9484524523        1.2974775997
 H          0.1007190383        3.9667926378        2.2626384334
 H         -0.3172130146        4.9202890923        0.8111828855
 C         -1.8897167934        3.6026687535        1.5017762241
 H         -1.9767702534        2.5793179288        1.8737545515
 H         -2.2906216423        4.2692621803        2.2663610166
 C         -2.6994290228        3.7505512312        0.2141382389
 H         -2.7647619934        4.8078266831       -0.0539794687
 H         -2.1757021271        3.2424852690       -0.5988042514
 C         -4.1076775260        3.1667173668        0.3342469444
 H         -4.0380611442        2.1386973153        0.6948163144
 H         -4.5602849689        3.1467688929       -0.6605103798
 C         -5.0094079900        3.9637746252        1.2691560398
 H         -5.0594296340        5.0053101071        0.9574007464
 H         -6.0171467828        3.5547134951        1.2579519679
 H         -4.6410913095        3.9248893285        2.2906748273
