89
original_frame=4 E_hartree=-121.278742640000 relative_energy=0.836671 kcal/mol
 C          0.0809018002       -1.3869307047       -0.9141341525
 C          0.1785842243       -0.8369367511        0.5162487836
 H         -0.7649595978       -0.3654125103        0.8106290477
 H          0.9857727412       -0.0999555972        0.5599516400
 C         -0.9470130196       -2.5304968241       -0.9912042656
 H         -0.5526368075       -3.4232975367       -0.4928479912
 H         -1.1684415127       -2.7606209858       -2.0371781294
 C         -0.3723230994       -0.2558390524       -1.8525305087
 H         -1.4490115083       -0.0858969274       -1.7406945193
 H         -0.1592888927       -0.5229560339       -2.8925619092
 C          1.4475474121       -1.9566430791       -1.3344592797
 H          1.8072361311       -2.6369208827       -0.5590761869
 H          1.3494127901       -2.4894150721       -2.2870167463
 O          0.3121336400        0.9545736636       -1.5454755178
 O         -2.1663298995       -2.1646759614       -0.3646004747
 O          0.4790716587       -1.8759594492        1.4357955532
 O          2.4373479383       -0.9481137145       -1.4714233667
 O         -1.9134133054       -3.8086970669        1.1359022978
 O         -1.1401744114       -1.1693543854        2.8179146382
 O          2.1340350171       -0.9029270776       -3.6947184909
 O         -1.5793837434        2.1401189869       -1.7697142720
 C         -0.2455185103       -1.9367401390        2.5612055464
 C          0.1584806298       -3.1020945993        3.4228929106
 H         -0.3304831276       -2.9898616855        4.3917110535
 H         -0.2606474344       -3.9828063047        2.9285196935
 C          1.6689913386       -3.2812128059        3.5925156913
 H          1.8476852735       -4.2877643108        3.9769588529
 H          2.1538474144       -3.2081517812        2.6198155664
 C          2.2897035868       -2.2829797361        4.5713716685
 H          1.7555198898       -2.3515606804        5.5223530851
 H          3.3260645319       -2.5781361594        4.7550838252
 C          2.2722823156       -0.8271388264        4.1051874242
 H          2.5943006599       -0.1983262518        4.9394693395
 H          1.2512848631       -0.5341821624        3.8565376162
 C          3.1883821545       -0.5675151956        2.9147013475
 H          3.1894519058        0.4915071931        2.6641151181
 H          4.2092855028       -0.8626787417        3.1496278436
 H          2.8632390854       -1.1229993449        2.0395210557
 C          2.7011788472       -0.5070415617       -2.7114308562
 C          3.8373130026        0.4868772282       -2.6949919107
 H          4.7607163978       -0.0989011009       -2.7003411004
 H          3.8019355222        1.0452259854       -1.7594273472
 C          3.7973991719        1.4134943549       -3.9088891838
 H          4.7619282259        1.9127736754       -4.0184443734
 H          3.6231506864        0.8080415152       -4.7999690835
 C          2.6914442340        2.4576481119       -3.7814303674
 H          2.9052660058        3.1058788663       -2.9278633522
 H          1.7449160648        1.9502142465       -3.5878806505
 C          2.5524228737        3.3136589174       -5.0371548105
 H          3.5036372652        3.8085988119       -5.2469472196
 H          2.3193199725        2.6685966189       -5.8864101103
 C          1.4574451974        4.3622057616       -4.8822373618
 H          1.3555380763        4.9477377383       -5.7926925099
 H          0.5018956842        3.8861805489       -4.6719461710
 H          1.6912551363        5.0411133555       -4.0642709267
 C         -2.5329534579       -2.8595165024        0.7226669231
 C         -3.7854653304       -2.3469220122        1.3795113348
 H         -4.4231110681       -3.2186287199        1.5476752895
 H         -3.4735186386       -1.9866803274        2.3651017839
 C         -4.5551982341       -1.2492492488        0.6489767630
 H         -5.5437027974       -1.1795318703        1.1100451849
 H         -4.6956406879       -1.5269569755       -0.3968722656
 C         -3.8863677989        0.1222733548        0.7332839267
 H         -3.0135097418        0.1467541350        0.0808821694
 H         -3.5454757581        0.2963686167        1.7565990934
 C         -4.8402648926        1.2414177882        0.3217093696
 H         -5.2118591449        1.0451395679       -0.6863738588
 H         -5.6995941803        1.2493523792        0.9974891158
 C         -4.1550632540        2.6016120817        0.3482323488
 H         -4.8578160649        3.3900002351        0.0880964568
 H         -3.7589859030        2.8067582740        1.3409201590
 H         -3.3364984215        2.6211978155       -0.3665807843
 C         -0.4117124554        2.0834662506       -1.4913493626
 C          0.4256338153        3.2448754865       -1.0175145208
 H          1.4493530157        2.9039243251       -0.8666721111
 H          0.4083457320        4.0147012023       -1.7906449921
 C         -0.1555967433        3.8111391957        0.2840475981
 H          0.4175817273        4.6948175325        0.5719847225
 H         -1.1875905360        4.1181480598        0.1065581160
 C         -0.1158314045        2.7810281483        1.4097289666
 H         -0.7296721660        1.9233555798        1.1298765837
 H          0.9107021126        2.4293700784        1.5438203356
 C         -0.6320293702        3.3322191559        2.7356293921
 H         -1.6706090810        3.6460544510        2.6128554669
 H         -0.0512549893        4.2142512896        3.0168237061
 C         -0.5395226242        2.2862265908        3.8405245793
 H         -1.0691363433        1.3791216168        3.5570687450
 H          0.4999873106        2.0266222509        4.0314874957
 H         -0.9719863115        2.6635838450        4.7640975281
